+ 0.1 1 2 cbr 1000 ------- 2 1.0 5.0 0 0
- 0.1 1 2 cbr 1000 ------- 2 1.0 5.0 0 0
+ 0.108 1 2 cbr 1000 ------- 2 1.0 5.0 1 1
- 0.108 1 2 cbr 1000 ------- 2 1.0 5.0 1 1
r 0.114 1 2 cbr 1000 ------- 2 1.0 5.0 0 0
+ 0.114 2 3 cbr 1000 ------- 2 1.0 5.0 0 0
- 0.114 2 3 cbr 1000 ------- 2 1.0 5.0 0 0
+ 0.116 1 2 cbr 1000 ------- 2 1.0 5.0 2 2
- 0.116 1 2 cbr 1000 ------- 2 1.0 5.0 2 2
r 0.122 1 2 cbr 1000 ------- 2 1.0 5.0 1 1
+ 0.122 2 3 cbr 1000 ------- 2 1.0 5.0 1 1
+ 0.124 1 2 cbr 1000 ------- 2 1.0 5.0 3 3
- 0.124 1 2 cbr 1000 ------- 2 1.0 5.0 3 3
r 0.13 1 2 cbr 1000 ------- 2 1.0 5.0 2 2
+ 0.13 2 3 cbr 1000 ------- 2 1.0 5.0 2 2
+ 0.132 1 2 cbr 1000 ------- 2 1.0 5.0 4 4
- 0.132 1 2 cbr 1000 ------- 2 1.0 5.0 4 4
r 0.138 1 2 cbr 1000 ------- 2 1.0 5.0 3 3
+ 0.138 2 3 cbr 1000 ------- 2 1.0 5.0 3 3
+ 0.14 1 2 cbr 1000 ------- 2 1.0 5.0 5 5
- 0.14 1 2 cbr 1000 ------- 2 1.0 5.0 5 5
- 0.140667 2 3 cbr 1000 ------- 2 1.0 5.0 1 1
r 0.146 1 2 cbr 1000 ------- 2 1.0 5.0 4 4
+ 0.146 2 3 cbr 1000 ------- 2 1.0 5.0 4 4
+ 0.148 1 2 cbr 1000 ------- 2 1.0 5.0 6 6
- 0.148 1 2 cbr 1000 ------- 2 1.0 5.0 6 6
r 0.154 1 2 cbr 1000 ------- 2 1.0 5.0 5 5
+ 0.154 2 3 cbr 1000 ------- 2 1.0 5.0 5 5
+ 0.156 1 2 cbr 1000 ------- 2 1.0 5.0 7 7
- 0.156 1 2 cbr 1000 ------- 2 1.0 5.0 7 7
r 0.160667 2 3 cbr 1000 ------- 2 1.0 5.0 0 0
+ 0.160667 3 5 cbr 1000 ------- 2 1.0 5.0 0 0
- 0.160667 3 5 cbr 1000 ------- 2 1.0 5.0 0 0
r 0.162 1 2 cbr 1000 ------- 2 1.0 5.0 6 6
+ 0.162 2 3 cbr 1000 ------- 2 1.0 5.0 6 6
+ 0.164 1 2 cbr 1000 ------- 2 1.0 5.0 8 8
- 0.164 1 2 cbr 1000 ------- 2 1.0 5.0 8 8
- 0.167333 2 3 cbr 1000 ------- 2 1.0 5.0 2 2
r 0.17 1 2 cbr 1000 ------- 2 1.0 5.0 7 7
+ 0.17 2 3 cbr 1000 ------- 2 1.0 5.0 7 7
+ 0.172 1 2 cbr 1000 ------- 2 1.0 5.0 9 9
- 0.172 1 2 cbr 1000 ------- 2 1.0 5.0 9 9
r 0.178 1 2 cbr 1000 ------- 2 1.0 5.0 8 8
+ 0.178 2 3 cbr 1000 ------- 2 1.0 5.0 8 8
+ 0.18 1 2 cbr 1000 ------- 2 1.0 5.0 10 10
- 0.18 1 2 cbr 1000 ------- 2 1.0 5.0 10 10
r 0.186 1 2 cbr 1000 ------- 2 1.0 5.0 9 9
+ 0.186 2 3 cbr 1000 ------- 2 1.0 5.0 9 9
r 0.187333 2 3 cbr 1000 ------- 2 1.0 5.0 1 1
+ 0.187333 3 5 cbr 1000 ------- 2 1.0 5.0 1 1
- 0.187333 3 5 cbr 1000 ------- 2 1.0 5.0 1 1
+ 0.188 1 2 cbr 1000 ------- 2 1.0 5.0 11 11
- 0.188 1 2 cbr 1000 ------- 2 1.0 5.0 11 11
- 0.194 2 3 cbr 1000 ------- 2 1.0 5.0 3 3
r 0.194 1 2 cbr 1000 ------- 2 1.0 5.0 10 10
+ 0.194 2 3 cbr 1000 ------- 2 1.0 5.0 10 10
+ 0.196 1 2 cbr 1000 ------- 2 1.0 5.0 12 12
- 0.196 1 2 cbr 1000 ------- 2 1.0 5.0 12 12
r 0.202 1 2 cbr 1000 ------- 2 1.0 5.0 11 11
+ 0.202 2 3 cbr 1000 ------- 2 1.0 5.0 11 11
+ 0.204 1 2 cbr 1000 ------- 2 1.0 5.0 13 13
- 0.204 1 2 cbr 1000 ------- 2 1.0 5.0 13 13
r 0.206667 3 5 cbr 1000 ------- 2 1.0 5.0 0 0
r 0.21 1 2 cbr 1000 ------- 2 1.0 5.0 12 12
+ 0.21 2 3 cbr 1000 ------- 2 1.0 5.0 12 12
+ 0.212 1 2 cbr 1000 ------- 2 1.0 5.0 14 14
- 0.212 1 2 cbr 1000 ------- 2 1.0 5.0 14 14
r 0.214 2 3 cbr 1000 ------- 2 1.0 5.0 2 2
+ 0.214 3 5 cbr 1000 ------- 2 1.0 5.0 2 2
- 0.214 3 5 cbr 1000 ------- 2 1.0 5.0 2 2
r 0.218 1 2 cbr 1000 ------- 2 1.0 5.0 13 13
+ 0.218 2 3 cbr 1000 ------- 2 1.0 5.0 13 13
d 0.218 2 3 cbr 1000 ------- 2 1.0 5.0 13 13
+ 0.22 1 2 cbr 1000 ------- 2 1.0 5.0 15 15
- 0.22 1 2 cbr 1000 ------- 2 1.0 5.0 15 15
- 0.220667 2 3 cbr 1000 ------- 2 1.0 5.0 4 4
r 0.226 1 2 cbr 1000 ------- 2 1.0 5.0 14 14
+ 0.226 2 3 cbr 1000 ------- 2 1.0 5.0 14 14
+ 0.228 1 2 cbr 1000 ------- 2 1.0 5.0 16 16
- 0.228 1 2 cbr 1000 ------- 2 1.0 5.0 16 16
r 0.233333 3 5 cbr 1000 ------- 2 1.0 5.0 1 1
r 0.234 1 2 cbr 1000 ------- 2 1.0 5.0 15 15
+ 0.234 2 3 cbr 1000 ------- 2 1.0 5.0 15 15
d 0.234 2 3 cbr 1000 ------- 2 1.0 5.0 15 15
+ 0.236 1 2 cbr 1000 ------- 2 1.0 5.0 17 17
- 0.236 1 2 cbr 1000 ------- 2 1.0 5.0 17 17
r 0.240667 2 3 cbr 1000 ------- 2 1.0 5.0 3 3
+ 0.240667 3 5 cbr 1000 ------- 2 1.0 5.0 3 3
- 0.240667 3 5 cbr 1000 ------- 2 1.0 5.0 3 3
r 0.242 1 2 cbr 1000 ------- 2 1.0 5.0 16 16
+ 0.242 2 3 cbr 1000 ------- 2 1.0 5.0 16 16
d 0.242 2 3 cbr 1000 ------- 2 1.0 5.0 16 16
+ 0.244 1 2 cbr 1000 ------- 2 1.0 5.0 18 18
- 0.244 1 2 cbr 1000 ------- 2 1.0 5.0 18 18
- 0.247333 2 3 cbr 1000 ------- 2 1.0 5.0 5 5
r 0.25 1 2 cbr 1000 ------- 2 1.0 5.0 17 17
+ 0.25 2 3 cbr 1000 ------- 2 1.0 5.0 17 17
+ 0.252 1 2 cbr 1000 ------- 2 1.0 5.0 19 19
- 0.252 1 2 cbr 1000 ------- 2 1.0 5.0 19 19
r 0.258 1 2 cbr 1000 ------- 2 1.0 5.0 18 18
+ 0.258 2 3 cbr 1000 ------- 2 1.0 5.0 18 18
d 0.258 2 3 cbr 1000 ------- 2 1.0 5.0 18 18
r 0.26 3 5 cbr 1000 ------- 2 1.0 5.0 2 2
+ 0.26 1 2 cbr 1000 ------- 2 1.0 5.0 20 20
- 0.26 1 2 cbr 1000 ------- 2 1.0 5.0 20 20
r 0.266 1 2 cbr 1000 ------- 2 1.0 5.0 19 19
+ 0.266 2 3 cbr 1000 ------- 2 1.0 5.0 19 19
d 0.266 2 3 cbr 1000 ------- 2 1.0 5.0 19 19
r 0.267333 2 3 cbr 1000 ------- 2 1.0 5.0 4 4
+ 0.267333 3 5 cbr 1000 ------- 2 1.0 5.0 4 4
- 0.267333 3 5 cbr 1000 ------- 2 1.0 5.0 4 4
+ 0.268 1 2 cbr 1000 ------- 2 1.0 5.0 21 21
- 0.268 1 2 cbr 1000 ------- 2 1.0 5.0 21 21
- 0.274 2 3 cbr 1000 ------- 2 1.0 5.0 6 6
r 0.274 1 2 cbr 1000 ------- 2 1.0 5.0 20 20
+ 0.274 2 3 cbr 1000 ------- 2 1.0 5.0 20 20
+ 0.276 1 2 cbr 1000 ------- 2 1.0 5.0 22 22
- 0.276 1 2 cbr 1000 ------- 2 1.0 5.0 22 22
r 0.282 1 2 cbr 1000 ------- 2 1.0 5.0 21 21
+ 0.282 2 3 cbr 1000 ------- 2 1.0 5.0 21 21
d 0.282 2 3 cbr 1000 ------- 2 1.0 5.0 21 21
+ 0.284 1 2 cbr 1000 ------- 2 1.0 5.0 23 23
- 0.284 1 2 cbr 1000 ------- 2 1.0 5.0 23 23
r 0.286667 3 5 cbr 1000 ------- 2 1.0 5.0 3 3
r 0.29 1 2 cbr 1000 ------- 2 1.0 5.0 22 22
+ 0.29 2 3 cbr 1000 ------- 2 1.0 5.0 22 22
d 0.29 2 3 cbr 1000 ------- 2 1.0 5.0 22 22
+ 0.292 1 2 cbr 1000 ------- 2 1.0 5.0 24 24
- 0.292 1 2 cbr 1000 ------- 2 1.0 5.0 24 24
r 0.294 2 3 cbr 1000 ------- 2 1.0 5.0 5 5
+ 0.294 3 5 cbr 1000 ------- 2 1.0 5.0 5 5
- 0.294 3 5 cbr 1000 ------- 2 1.0 5.0 5 5
r 0.298 1 2 cbr 1000 ------- 2 1.0 5.0 23 23
+ 0.298 2 3 cbr 1000 ------- 2 1.0 5.0 23 23
d 0.298 2 3 cbr 1000 ------- 2 1.0 5.0 23 23
+ 0.3 1 2 cbr 1000 ------- 2 1.0 5.0 25 25
- 0.3 1 2 cbr 1000 ------- 2 1.0 5.0 25 25
- 0.300667 2 3 cbr 1000 ------- 2 1.0 5.0 7 7
r 0.306 1 2 cbr 1000 ------- 2 1.0 5.0 24 24
+ 0.306 2 3 cbr 1000 ------- 2 1.0 5.0 24 24
+ 0.308 1 2 cbr 1000 ------- 2 1.0 5.0 26 26
- 0.308 1 2 cbr 1000 ------- 2 1.0 5.0 26 26
r 0.313333 3 5 cbr 1000 ------- 2 1.0 5.0 4 4
r 0.314 1 2 cbr 1000 ------- 2 1.0 5.0 25 25
+ 0.314 2 3 cbr 1000 ------- 2 1.0 5.0 25 25
d 0.314 2 3 cbr 1000 ------- 2 1.0 5.0 25 25
+ 0.316 1 2 cbr 1000 ------- 2 1.0 5.0 27 27
- 0.316 1 2 cbr 1000 ------- 2 1.0 5.0 27 27
r 0.320667 2 3 cbr 1000 ------- 2 1.0 5.0 6 6
+ 0.320667 3 5 cbr 1000 ------- 2 1.0 5.0 6 6
- 0.320667 3 5 cbr 1000 ------- 2 1.0 5.0 6 6
r 0.322 1 2 cbr 1000 ------- 2 1.0 5.0 26 26
+ 0.322 2 3 cbr 1000 ------- 2 1.0 5.0 26 26
d 0.322 2 3 cbr 1000 ------- 2 1.0 5.0 26 26
+ 0.324 1 2 cbr 1000 ------- 2 1.0 5.0 28 28
- 0.324 1 2 cbr 1000 ------- 2 1.0 5.0 28 28
- 0.327333 2 3 cbr 1000 ------- 2 1.0 5.0 8 8
r 0.33 1 2 cbr 1000 ------- 2 1.0 5.0 27 27
+ 0.33 2 3 cbr 1000 ------- 2 1.0 5.0 27 27
+ 0.332 1 2 cbr 1000 ------- 2 1.0 5.0 29 29
- 0.332 1 2 cbr 1000 ------- 2 1.0 5.0 29 29
r 0.338 1 2 cbr 1000 ------- 2 1.0 5.0 28 28
+ 0.338 2 3 cbr 1000 ------- 2 1.0 5.0 28 28
d 0.338 2 3 cbr 1000 ------- 2 1.0 5.0 28 28
r 0.34 3 5 cbr 1000 ------- 2 1.0 5.0 5 5
+ 0.34 1 2 cbr 1000 ------- 2 1.0 5.0 30 30
- 0.34 1 2 cbr 1000 ------- 2 1.0 5.0 30 30
r 0.346 1 2 cbr 1000 ------- 2 1.0 5.0 29 29
+ 0.346 2 3 cbr 1000 ------- 2 1.0 5.0 29 29
d 0.346 2 3 cbr 1000 ------- 2 1.0 5.0 29 29
r 0.347333 2 3 cbr 1000 ------- 2 1.0 5.0 7 7
+ 0.347333 3 5 cbr 1000 ------- 2 1.0 5.0 7 7
- 0.347333 3 5 cbr 1000 ------- 2 1.0 5.0 7 7
+ 0.348 1 2 cbr 1000 ------- 2 1.0 5.0 31 31
- 0.348 1 2 cbr 1000 ------- 2 1.0 5.0 31 31
- 0.354 2 3 cbr 1000 ------- 2 1.0 5.0 9 9
r 0.354 1 2 cbr 1000 ------- 2 1.0 5.0 30 30
+ 0.354 2 3 cbr 1000 ------- 2 1.0 5.0 30 30
+ 0.356 1 2 cbr 1000 ------- 2 1.0 5.0 32 32
- 0.356 1 2 cbr 1000 ------- 2 1.0 5.0 32 32
r 0.362 1 2 cbr 1000 ------- 2 1.0 5.0 31 31
+ 0.362 2 3 cbr 1000 ------- 2 1.0 5.0 31 31
d 0.362 2 3 cbr 1000 ------- 2 1.0 5.0 31 31
+ 0.364 1 2 cbr 1000 ------- 2 1.0 5.0 33 33
- 0.364 1 2 cbr 1000 ------- 2 1.0 5.0 33 33
r 0.366667 3 5 cbr 1000 ------- 2 1.0 5.0 6 6
r 0.37 1 2 cbr 1000 ------- 2 1.0 5.0 32 32
+ 0.37 2 3 cbr 1000 ------- 2 1.0 5.0 32 32
d 0.37 2 3 cbr 1000 ------- 2 1.0 5.0 32 32
+ 0.372 1 2 cbr 1000 ------- 2 1.0 5.0 34 34
- 0.372 1 2 cbr 1000 ------- 2 1.0 5.0 34 34
r 0.374 2 3 cbr 1000 ------- 2 1.0 5.0 8 8
+ 0.374 3 5 cbr 1000 ------- 2 1.0 5.0 8 8
- 0.374 3 5 cbr 1000 ------- 2 1.0 5.0 8 8
r 0.378 1 2 cbr 1000 ------- 2 1.0 5.0 33 33
+ 0.378 2 3 cbr 1000 ------- 2 1.0 5.0 33 33
d 0.378 2 3 cbr 1000 ------- 2 1.0 5.0 33 33
+ 0.38 1 2 cbr 1000 ------- 2 1.0 5.0 35 35
- 0.38 1 2 cbr 1000 ------- 2 1.0 5.0 35 35
- 0.380667 2 3 cbr 1000 ------- 2 1.0 5.0 10 10
r 0.386 1 2 cbr 1000 ------- 2 1.0 5.0 34 34
+ 0.386 2 3 cbr 1000 ------- 2 1.0 5.0 34 34
+ 0.388 1 2 cbr 1000 ------- 2 1.0 5.0 36 36
- 0.388 1 2 cbr 1000 ------- 2 1.0 5.0 36 36
r 0.393333 3 5 cbr 1000 ------- 2 1.0 5.0 7 7
r 0.394 1 2 cbr 1000 ------- 2 1.0 5.0 35 35
+ 0.394 2 3 cbr 1000 ------- 2 1.0 5.0 35 35
d 0.394 2 3 cbr 1000 ------- 2 1.0 5.0 35 35
+ 0.396 1 2 cbr 1000 ------- 2 1.0 5.0 37 37
- 0.396 1 2 cbr 1000 ------- 2 1.0 5.0 37 37
r 0.400667 2 3 cbr 1000 ------- 2 1.0 5.0 9 9
+ 0.400667 3 5 cbr 1000 ------- 2 1.0 5.0 9 9
- 0.400667 3 5 cbr 1000 ------- 2 1.0 5.0 9 9
r 0.402 1 2 cbr 1000 ------- 2 1.0 5.0 36 36
+ 0.402 2 3 cbr 1000 ------- 2 1.0 5.0 36 36
d 0.402 2 3 cbr 1000 ------- 2 1.0 5.0 36 36
+ 0.404 1 2 cbr 1000 ------- 2 1.0 5.0 38 38
- 0.404 1 2 cbr 1000 ------- 2 1.0 5.0 38 38
- 0.407333 2 3 cbr 1000 ------- 2 1.0 5.0 11 11
r 0.41 1 2 cbr 1000 ------- 2 1.0 5.0 37 37
+ 0.41 2 3 cbr 1000 ------- 2 1.0 5.0 37 37
+ 0.412 1 2 cbr 1000 ------- 2 1.0 5.0 39 39
- 0.412 1 2 cbr 1000 ------- 2 1.0 5.0 39 39
r 0.418 1 2 cbr 1000 ------- 2 1.0 5.0 38 38
+ 0.418 2 3 cbr 1000 ------- 2 1.0 5.0 38 38
d 0.418 2 3 cbr 1000 ------- 2 1.0 5.0 38 38
r 0.42 3 5 cbr 1000 ------- 2 1.0 5.0 8 8
+ 0.42 1 2 cbr 1000 ------- 2 1.0 5.0 40 40
- 0.42 1 2 cbr 1000 ------- 2 1.0 5.0 40 40
r 0.426 1 2 cbr 1000 ------- 2 1.0 5.0 39 39
+ 0.426 2 3 cbr 1000 ------- 2 1.0 5.0 39 39
d 0.426 2 3 cbr 1000 ------- 2 1.0 5.0 39 39
r 0.427333 2 3 cbr 1000 ------- 2 1.0 5.0 10 10
+ 0.427333 3 5 cbr 1000 ------- 2 1.0 5.0 10 10
- 0.427333 3 5 cbr 1000 ------- 2 1.0 5.0 10 10
+ 0.428 1 2 cbr 1000 ------- 2 1.0 5.0 41 41
- 0.428 1 2 cbr 1000 ------- 2 1.0 5.0 41 41
- 0.434 2 3 cbr 1000 ------- 2 1.0 5.0 12 12
r 0.434 1 2 cbr 1000 ------- 2 1.0 5.0 40 40
+ 0.434 2 3 cbr 1000 ------- 2 1.0 5.0 40 40
+ 0.436 1 2 cbr 1000 ------- 2 1.0 5.0 42 42
- 0.436 1 2 cbr 1000 ------- 2 1.0 5.0 42 42
r 0.442 1 2 cbr 1000 ------- 2 1.0 5.0 41 41
+ 0.442 2 3 cbr 1000 ------- 2 1.0 5.0 41 41
d 0.442 2 3 cbr 1000 ------- 2 1.0 5.0 41 41
+ 0.444 1 2 cbr 1000 ------- 2 1.0 5.0 43 43
- 0.444 1 2 cbr 1000 ------- 2 1.0 5.0 43 43
r 0.446667 3 5 cbr 1000 ------- 2 1.0 5.0 9 9
r 0.45 1 2 cbr 1000 ------- 2 1.0 5.0 42 42
+ 0.45 2 3 cbr 1000 ------- 2 1.0 5.0 42 42
d 0.45 2 3 cbr 1000 ------- 2 1.0 5.0 42 42
+ 0.452 1 2 cbr 1000 ------- 2 1.0 5.0 44 44
- 0.452 1 2 cbr 1000 ------- 2 1.0 5.0 44 44
r 0.454 2 3 cbr 1000 ------- 2 1.0 5.0 11 11
+ 0.454 3 5 cbr 1000 ------- 2 1.0 5.0 11 11
- 0.454 3 5 cbr 1000 ------- 2 1.0 5.0 11 11
r 0.458 1 2 cbr 1000 ------- 2 1.0 5.0 43 43
+ 0.458 2 3 cbr 1000 ------- 2 1.0 5.0 43 43
d 0.458 2 3 cbr 1000 ------- 2 1.0 5.0 43 43
+ 0.46 1 2 cbr 1000 ------- 2 1.0 5.0 45 45
- 0.46 1 2 cbr 1000 ------- 2 1.0 5.0 45 45
- 0.460667 2 3 cbr 1000 ------- 2 1.0 5.0 14 14
r 0.466 1 2 cbr 1000 ------- 2 1.0 5.0 44 44
+ 0.466 2 3 cbr 1000 ------- 2 1.0 5.0 44 44
+ 0.468 1 2 cbr 1000 ------- 2 1.0 5.0 46 46
- 0.468 1 2 cbr 1000 ------- 2 1.0 5.0 46 46
r 0.473333 3 5 cbr 1000 ------- 2 1.0 5.0 10 10
r 0.474 1 2 cbr 1000 ------- 2 1.0 5.0 45 45
+ 0.474 2 3 cbr 1000 ------- 2 1.0 5.0 45 45
d 0.474 2 3 cbr 1000 ------- 2 1.0 5.0 45 45
+ 0.476 1 2 cbr 1000 ------- 2 1.0 5.0 47 47
- 0.476 1 2 cbr 1000 ------- 2 1.0 5.0 47 47
r 0.480667 2 3 cbr 1000 ------- 2 1.0 5.0 12 12
+ 0.480667 3 5 cbr 1000 ------- 2 1.0 5.0 12 12
- 0.480667 3 5 cbr 1000 ------- 2 1.0 5.0 12 12
r 0.482 1 2 cbr 1000 ------- 2 1.0 5.0 46 46
+ 0.482 2 3 cbr 1000 ------- 2 1.0 5.0 46 46
d 0.482 2 3 cbr 1000 ------- 2 1.0 5.0 46 46
+ 0.484 1 2 cbr 1000 ------- 2 1.0 5.0 48 48
- 0.484 1 2 cbr 1000 ------- 2 1.0 5.0 48 48
- 0.487333 2 3 cbr 1000 ------- 2 1.0 5.0 17 17
r 0.49 1 2 cbr 1000 ------- 2 1.0 5.0 47 47
+ 0.49 2 3 cbr 1000 ------- 2 1.0 5.0 47 47
+ 0.492 1 2 cbr 1000 ------- 2 1.0 5.0 49 49
- 0.492 1 2 cbr 1000 ------- 2 1.0 5.0 49 49
r 0.498 1 2 cbr 1000 ------- 2 1.0 5.0 48 48
+ 0.498 2 3 cbr 1000 ------- 2 1.0 5.0 48 48
d 0.498 2 3 cbr 1000 ------- 2 1.0 5.0 48 48
r 0.5 3 5 cbr 1000 ------- 2 1.0 5.0 11 11
+ 0.5 1 2 cbr 1000 ------- 2 1.0 5.0 50 50
- 0.5 1 2 cbr 1000 ------- 2 1.0 5.0 50 50
r 0.506 1 2 cbr 1000 ------- 2 1.0 5.0 49 49
+ 0.506 2 3 cbr 1000 ------- 2 1.0 5.0 49 49
d 0.506 2 3 cbr 1000 ------- 2 1.0 5.0 49 49
r 0.507333 2 3 cbr 1000 ------- 2 1.0 5.0 14 14
+ 0.507333 3 5 cbr 1000 ------- 2 1.0 5.0 14 14
- 0.507333 3 5 cbr 1000 ------- 2 1.0 5.0 14 14
+ 0.508 1 2 cbr 1000 ------- 2 1.0 5.0 51 51
- 0.508 1 2 cbr 1000 ------- 2 1.0 5.0 51 51
- 0.514 2 3 cbr 1000 ------- 2 1.0 5.0 20 20
r 0.514 1 2 cbr 1000 ------- 2 1.0 5.0 50 50
+ 0.514 2 3 cbr 1000 ------- 2 1.0 5.0 50 50
+ 0.516 1 2 cbr 1000 ------- 2 1.0 5.0 52 52
- 0.516 1 2 cbr 1000 ------- 2 1.0 5.0 52 52
r 0.522 1 2 cbr 1000 ------- 2 1.0 5.0 51 51
+ 0.522 2 3 cbr 1000 ------- 2 1.0 5.0 51 51
d 0.522 2 3 cbr 1000 ------- 2 1.0 5.0 51 51
+ 0.524 1 2 cbr 1000 ------- 2 1.0 5.0 53 53
- 0.524 1 2 cbr 1000 ------- 2 1.0 5.0 53 53
r 0.526667 3 5 cbr 1000 ------- 2 1.0 5.0 12 12
r 0.53 1 2 cbr 1000 ------- 2 1.0 5.0 52 52
+ 0.53 2 3 cbr 1000 ------- 2 1.0 5.0 52 52
d 0.53 2 3 cbr 1000 ------- 2 1.0 5.0 52 52
+ 0.532 1 2 cbr 1000 ------- 2 1.0 5.0 54 54
- 0.532 1 2 cbr 1000 ------- 2 1.0 5.0 54 54
r 0.534 2 3 cbr 1000 ------- 2 1.0 5.0 17 17
+ 0.534 3 5 cbr 1000 ------- 2 1.0 5.0 17 17
- 0.534 3 5 cbr 1000 ------- 2 1.0 5.0 17 17
r 0.538 1 2 cbr 1000 ------- 2 1.0 5.0 53 53
+ 0.538 2 3 cbr 1000 ------- 2 1.0 5.0 53 53
d 0.538 2 3 cbr 1000 ------- 2 1.0 5.0 53 53
+ 0.54 1 2 cbr 1000 ------- 2 1.0 5.0 55 55
- 0.54 1 2 cbr 1000 ------- 2 1.0 5.0 55 55
- 0.540667 2 3 cbr 1000 ------- 2 1.0 5.0 24 24
r 0.546 1 2 cbr 1000 ------- 2 1.0 5.0 54 54
+ 0.546 2 3 cbr 1000 ------- 2 1.0 5.0 54 54
+ 0.548 1 2 cbr 1000 ------- 2 1.0 5.0 56 56
- 0.548 1 2 cbr 1000 ------- 2 1.0 5.0 56 56
r 0.553333 3 5 cbr 1000 ------- 2 1.0 5.0 14 14
r 0.554 1 2 cbr 1000 ------- 2 1.0 5.0 55 55
+ 0.554 2 3 cbr 1000 ------- 2 1.0 5.0 55 55
d 0.554 2 3 cbr 1000 ------- 2 1.0 5.0 55 55
+ 0.556 1 2 cbr 1000 ------- 2 1.0 5.0 57 57
- 0.556 1 2 cbr 1000 ------- 2 1.0 5.0 57 57
r 0.560667 2 3 cbr 1000 ------- 2 1.0 5.0 20 20
+ 0.560667 3 5 cbr 1000 ------- 2 1.0 5.0 20 20
- 0.560667 3 5 cbr 1000 ------- 2 1.0 5.0 20 20
r 0.562 1 2 cbr 1000 ------- 2 1.0 5.0 56 56
+ 0.562 2 3 cbr 1000 ------- 2 1.0 5.0 56 56
d 0.562 2 3 cbr 1000 ------- 2 1.0 5.0 56 56
+ 0.564 1 2 cbr 1000 ------- 2 1.0 5.0 58 58
- 0.564 1 2 cbr 1000 ------- 2 1.0 5.0 58 58
- 0.567333 2 3 cbr 1000 ------- 2 1.0 5.0 27 27
r 0.57 1 2 cbr 1000 ------- 2 1.0 5.0 57 57
+ 0.57 2 3 cbr 1000 ------- 2 1.0 5.0 57 57
+ 0.572 1 2 cbr 1000 ------- 2 1.0 5.0 59 59
- 0.572 1 2 cbr 1000 ------- 2 1.0 5.0 59 59
r 0.578 1 2 cbr 1000 ------- 2 1.0 5.0 58 58
+ 0.578 2 3 cbr 1000 ------- 2 1.0 5.0 58 58
d 0.578 2 3 cbr 1000 ------- 2 1.0 5.0 58 58
r 0.58 3 5 cbr 1000 ------- 2 1.0 5.0 17 17
+ 0.58 1 2 cbr 1000 ------- 2 1.0 5.0 60 60
- 0.58 1 2 cbr 1000 ------- 2 1.0 5.0 60 60
r 0.586 1 2 cbr 1000 ------- 2 1.0 5.0 59 59
+ 0.586 2 3 cbr 1000 ------- 2 1.0 5.0 59 59
d 0.586 2 3 cbr 1000 ------- 2 1.0 5.0 59 59
r 0.587333 2 3 cbr 1000 ------- 2 1.0 5.0 24 24
+ 0.587333 3 5 cbr 1000 ------- 2 1.0 5.0 24 24
- 0.587333 3 5 cbr 1000 ------- 2 1.0 5.0 24 24
+ 0.588 1 2 cbr 1000 ------- 2 1.0 5.0 61 61
- 0.588 1 2 cbr 1000 ------- 2 1.0 5.0 61 61
- 0.594 2 3 cbr 1000 ------- 2 1.0 5.0 30 30
r 0.594 1 2 cbr 1000 ------- 2 1.0 5.0 60 60
+ 0.594 2 3 cbr 1000 ------- 2 1.0 5.0 60 60
+ 0.596 1 2 cbr 1000 ------- 2 1.0 5.0 62 62
- 0.596 1 2 cbr 1000 ------- 2 1.0 5.0 62 62
r 0.602 1 2 cbr 1000 ------- 2 1.0 5.0 61 61
+ 0.602 2 3 cbr 1000 ------- 2 1.0 5.0 61 61
d 0.602 2 3 cbr 1000 ------- 2 1.0 5.0 61 61
+ 0.604 1 2 cbr 1000 ------- 2 1.0 5.0 63 63
- 0.604 1 2 cbr 1000 ------- 2 1.0 5.0 63 63
r 0.606667 3 5 cbr 1000 ------- 2 1.0 5.0 20 20
r 0.61 1 2 cbr 1000 ------- 2 1.0 5.0 62 62
+ 0.61 2 3 cbr 1000 ------- 2 1.0 5.0 62 62
d 0.61 2 3 cbr 1000 ------- 2 1.0 5.0 62 62
+ 0.612 1 2 cbr 1000 ------- 2 1.0 5.0 64 64
- 0.612 1 2 cbr 1000 ------- 2 1.0 5.0 64 64
r 0.614 2 3 cbr 1000 ------- 2 1.0 5.0 27 27
+ 0.614 3 5 cbr 1000 ------- 2 1.0 5.0 27 27
- 0.614 3 5 cbr 1000 ------- 2 1.0 5.0 27 27
r 0.618 1 2 cbr 1000 ------- 2 1.0 5.0 63 63
+ 0.618 2 3 cbr 1000 ------- 2 1.0 5.0 63 63
d 0.618 2 3 cbr 1000 ------- 2 1.0 5.0 63 63
+ 0.62 1 2 cbr 1000 ------- 2 1.0 5.0 65 65
- 0.62 1 2 cbr 1000 ------- 2 1.0 5.0 65 65
- 0.620667 2 3 cbr 1000 ------- 2 1.0 5.0 34 34
r 0.626 1 2 cbr 1000 ------- 2 1.0 5.0 64 64
+ 0.626 2 3 cbr 1000 ------- 2 1.0 5.0 64 64
+ 0.628 1 2 cbr 1000 ------- 2 1.0 5.0 66 66
- 0.628 1 2 cbr 1000 ------- 2 1.0 5.0 66 66
r 0.633333 3 5 cbr 1000 ------- 2 1.0 5.0 24 24
r 0.634 1 2 cbr 1000 ------- 2 1.0 5.0 65 65
+ 0.634 2 3 cbr 1000 ------- 2 1.0 5.0 65 65
d 0.634 2 3 cbr 1000 ------- 2 1.0 5.0 65 65
+ 0.636 1 2 cbr 1000 ------- 2 1.0 5.0 67 67
- 0.636 1 2 cbr 1000 ------- 2 1.0 5.0 67 67
r 0.640667 2 3 cbr 1000 ------- 2 1.0 5.0 30 30
+ 0.640667 3 5 cbr 1000 ------- 2 1.0 5.0 30 30
- 0.640667 3 5 cbr 1000 ------- 2 1.0 5.0 30 30
r 0.642 1 2 cbr 1000 ------- 2 1.0 5.0 66 66
+ 0.642 2 3 cbr 1000 ------- 2 1.0 5.0 66 66
d 0.642 2 3 cbr 1000 ------- 2 1.0 5.0 66 66
+ 0.644 1 2 cbr 1000 ------- 2 1.0 5.0 68 68
- 0.644 1 2 cbr 1000 ------- 2 1.0 5.0 68 68
- 0.647333 2 3 cbr 1000 ------- 2 1.0 5.0 37 37
r 0.65 1 2 cbr 1000 ------- 2 1.0 5.0 67 67
+ 0.65 2 3 cbr 1000 ------- 2 1.0 5.0 67 67
+ 0.652 1 2 cbr 1000 ------- 2 1.0 5.0 69 69
- 0.652 1 2 cbr 1000 ------- 2 1.0 5.0 69 69
r 0.658 1 2 cbr 1000 ------- 2 1.0 5.0 68 68
+ 0.658 2 3 cbr 1000 ------- 2 1.0 5.0 68 68
d 0.658 2 3 cbr 1000 ------- 2 1.0 5.0 68 68
r 0.66 3 5 cbr 1000 ------- 2 1.0 5.0 27 27
+ 0.66 1 2 cbr 1000 ------- 2 1.0 5.0 70 70
- 0.66 1 2 cbr 1000 ------- 2 1.0 5.0 70 70
r 0.666 1 2 cbr 1000 ------- 2 1.0 5.0 69 69
+ 0.666 2 3 cbr 1000 ------- 2 1.0 5.0 69 69
d 0.666 2 3 cbr 1000 ------- 2 1.0 5.0 69 69
r 0.667333 2 3 cbr 1000 ------- 2 1.0 5.0 34 34
+ 0.667333 3 5 cbr 1000 ------- 2 1.0 5.0 34 34
- 0.667333 3 5 cbr 1000 ------- 2 1.0 5.0 34 34
+ 0.668 1 2 cbr 1000 ------- 2 1.0 5.0 71 71
- 0.668 1 2 cbr 1000 ------- 2 1.0 5.0 71 71
- 0.674 2 3 cbr 1000 ------- 2 1.0 5.0 40 40
r 0.674 1 2 cbr 1000 ------- 2 1.0 5.0 70 70
+ 0.674 2 3 cbr 1000 ------- 2 1.0 5.0 70 70
+ 0.676 1 2 cbr 1000 ------- 2 1.0 5.0 72 72
- 0.676 1 2 cbr 1000 ------- 2 1.0 5.0 72 72
r 0.682 1 2 cbr 1000 ------- 2 1.0 5.0 71 71
+ 0.682 2 3 cbr 1000 ------- 2 1.0 5.0 71 71
d 0.682 2 3 cbr 1000 ------- 2 1.0 5.0 71 71
+ 0.684 1 2 cbr 1000 ------- 2 1.0 5.0 73 73
- 0.684 1 2 cbr 1000 ------- 2 1.0 5.0 73 73
r 0.686667 3 5 cbr 1000 ------- 2 1.0 5.0 30 30
r 0.69 1 2 cbr 1000 ------- 2 1.0 5.0 72 72
+ 0.69 2 3 cbr 1000 ------- 2 1.0 5.0 72 72
d 0.69 2 3 cbr 1000 ------- 2 1.0 5.0 72 72
+ 0.692 1 2 cbr 1000 ------- 2 1.0 5.0 74 74
- 0.692 1 2 cbr 1000 ------- 2 1.0 5.0 74 74
r 0.694 2 3 cbr 1000 ------- 2 1.0 5.0 37 37
+ 0.694 3 5 cbr 1000 ------- 2 1.0 5.0 37 37
- 0.694 3 5 cbr 1000 ------- 2 1.0 5.0 37 37
r 0.698 1 2 cbr 1000 ------- 2 1.0 5.0 73 73
+ 0.698 2 3 cbr 1000 ------- 2 1.0 5.0 73 73
d 0.698 2 3 cbr 1000 ------- 2 1.0 5.0 73 73
+ 0.7 1 2 cbr 1000 ------- 2 1.0 5.0 75 75
- 0.7 1 2 cbr 1000 ------- 2 1.0 5.0 75 75
- 0.700667 2 3 cbr 1000 ------- 2 1.0 5.0 44 44
r 0.706 1 2 cbr 1000 ------- 2 1.0 5.0 74 74
+ 0.706 2 3 cbr 1000 ------- 2 1.0 5.0 74 74
+ 0.708 1 2 cbr 1000 ------- 2 1.0 5.0 76 76
- 0.708 1 2 cbr 1000 ------- 2 1.0 5.0 76 76
r 0.713333 3 5 cbr 1000 ------- 2 1.0 5.0 34 34
r 0.714 1 2 cbr 1000 ------- 2 1.0 5.0 75 75
+ 0.714 2 3 cbr 1000 ------- 2 1.0 5.0 75 75
d 0.714 2 3 cbr 1000 ------- 2 1.0 5.0 75 75
+ 0.716 1 2 cbr 1000 ------- 2 1.0 5.0 77 77
- 0.716 1 2 cbr 1000 ------- 2 1.0 5.0 77 77
r 0.720667 2 3 cbr 1000 ------- 2 1.0 5.0 40 40
+ 0.720667 3 5 cbr 1000 ------- 2 1.0 5.0 40 40
- 0.720667 3 5 cbr 1000 ------- 2 1.0 5.0 40 40
r 0.722 1 2 cbr 1000 ------- 2 1.0 5.0 76 76
+ 0.722 2 3 cbr 1000 ------- 2 1.0 5.0 76 76
d 0.722 2 3 cbr 1000 ------- 2 1.0 5.0 76 76
+ 0.724 1 2 cbr 1000 ------- 2 1.0 5.0 78 78
- 0.724 1 2 cbr 1000 ------- 2 1.0 5.0 78 78
- 0.727333 2 3 cbr 1000 ------- 2 1.0 5.0 47 47
r 0.73 1 2 cbr 1000 ------- 2 1.0 5.0 77 77
+ 0.73 2 3 cbr 1000 ------- 2 1.0 5.0 77 77
+ 0.732 1 2 cbr 1000 ------- 2 1.0 5.0 79 79
- 0.732 1 2 cbr 1000 ------- 2 1.0 5.0 79 79
r 0.738 1 2 cbr 1000 ------- 2 1.0 5.0 78 78
+ 0.738 2 3 cbr 1000 ------- 2 1.0 5.0 78 78
d 0.738 2 3 cbr 1000 ------- 2 1.0 5.0 78 78
r 0.74 3 5 cbr 1000 ------- 2 1.0 5.0 37 37
+ 0.74 1 2 cbr 1000 ------- 2 1.0 5.0 80 80
- 0.74 1 2 cbr 1000 ------- 2 1.0 5.0 80 80
r 0.746 1 2 cbr 1000 ------- 2 1.0 5.0 79 79
+ 0.746 2 3 cbr 1000 ------- 2 1.0 5.0 79 79
d 0.746 2 3 cbr 1000 ------- 2 1.0 5.0 79 79
r 0.747333 2 3 cbr 1000 ------- 2 1.0 5.0 44 44
+ 0.747333 3 5 cbr 1000 ------- 2 1.0 5.0 44 44
- 0.747333 3 5 cbr 1000 ------- 2 1.0 5.0 44 44
+ 0.748 1 2 cbr 1000 ------- 2 1.0 5.0 81 81
- 0.748 1 2 cbr 1000 ------- 2 1.0 5.0 81 81
- 0.754 2 3 cbr 1000 ------- 2 1.0 5.0 50 50
r 0.754 1 2 cbr 1000 ------- 2 1.0 5.0 80 80
+ 0.754 2 3 cbr 1000 ------- 2 1.0 5.0 80 80
+ 0.756 1 2 cbr 1000 ------- 2 1.0 5.0 82 82
- 0.756 1 2 cbr 1000 ------- 2 1.0 5.0 82 82
r 0.762 1 2 cbr 1000 ------- 2 1.0 5.0 81 81
+ 0.762 2 3 cbr 1000 ------- 2 1.0 5.0 81 81
d 0.762 2 3 cbr 1000 ------- 2 1.0 5.0 81 81
+ 0.764 1 2 cbr 1000 ------- 2 1.0 5.0 83 83
- 0.764 1 2 cbr 1000 ------- 2 1.0 5.0 83 83
r 0.766667 3 5 cbr 1000 ------- 2 1.0 5.0 40 40
r 0.77 1 2 cbr 1000 ------- 2 1.0 5.0 82 82
+ 0.77 2 3 cbr 1000 ------- 2 1.0 5.0 82 82
d 0.77 2 3 cbr 1000 ------- 2 1.0 5.0 82 82
+ 0.772 1 2 cbr 1000 ------- 2 1.0 5.0 84 84
- 0.772 1 2 cbr 1000 ------- 2 1.0 5.0 84 84
r 0.774 2 3 cbr 1000 ------- 2 1.0 5.0 47 47
+ 0.774 3 5 cbr 1000 ------- 2 1.0 5.0 47 47
- 0.774 3 5 cbr 1000 ------- 2 1.0 5.0 47 47
r 0.778 1 2 cbr 1000 ------- 2 1.0 5.0 83 83
+ 0.778 2 3 cbr 1000 ------- 2 1.0 5.0 83 83
d 0.778 2 3 cbr 1000 ------- 2 1.0 5.0 83 83
+ 0.78 1 2 cbr 1000 ------- 2 1.0 5.0 85 85
- 0.78 1 2 cbr 1000 ------- 2 1.0 5.0 85 85
- 0.780667 2 3 cbr 1000 ------- 2 1.0 5.0 54 54
r 0.786 1 2 cbr 1000 ------- 2 1.0 5.0 84 84
+ 0.786 2 3 cbr 1000 ------- 2 1.0 5.0 84 84
+ 0.788 1 2 cbr 1000 ------- 2 1.0 5.0 86 86
- 0.788 1 2 cbr 1000 ------- 2 1.0 5.0 86 86
r 0.793333 3 5 cbr 1000 ------- 2 1.0 5.0 44 44
r 0.794 1 2 cbr 1000 ------- 2 1.0 5.0 85 85
+ 0.794 2 3 cbr 1000 ------- 2 1.0 5.0 85 85
d 0.794 2 3 cbr 1000 ------- 2 1.0 5.0 85 85
+ 0.796 1 2 cbr 1000 ------- 2 1.0 5.0 87 87
- 0.796 1 2 cbr 1000 ------- 2 1.0 5.0 87 87
r 0.800667 2 3 cbr 1000 ------- 2 1.0 5.0 50 50
+ 0.800667 3 5 cbr 1000 ------- 2 1.0 5.0 50 50
- 0.800667 3 5 cbr 1000 ------- 2 1.0 5.0 50 50
r 0.802 1 2 cbr 1000 ------- 2 1.0 5.0 86 86
+ 0.802 2 3 cbr 1000 ------- 2 1.0 5.0 86 86
d 0.802 2 3 cbr 1000 ------- 2 1.0 5.0 86 86
+ 0.804 1 2 cbr 1000 ------- 2 1.0 5.0 88 88
- 0.804 1 2 cbr 1000 ------- 2 1.0 5.0 88 88
- 0.807333 2 3 cbr 1000 ------- 2 1.0 5.0 57 57
r 0.81 1 2 cbr 1000 ------- 2 1.0 5.0 87 87
+ 0.81 2 3 cbr 1000 ------- 2 1.0 5.0 87 87
+ 0.812 1 2 cbr 1000 ------- 2 1.0 5.0 89 89
- 0.812 1 2 cbr 1000 ------- 2 1.0 5.0 89 89
r 0.818 1 2 cbr 1000 ------- 2 1.0 5.0 88 88
+ 0.818 2 3 cbr 1000 ------- 2 1.0 5.0 88 88
d 0.818 2 3 cbr 1000 ------- 2 1.0 5.0 88 88
r 0.82 3 5 cbr 1000 ------- 2 1.0 5.0 47 47
+ 0.82 1 2 cbr 1000 ------- 2 1.0 5.0 90 90
- 0.82 1 2 cbr 1000 ------- 2 1.0 5.0 90 90
r 0.826 1 2 cbr 1000 ------- 2 1.0 5.0 89 89
+ 0.826 2 3 cbr 1000 ------- 2 1.0 5.0 89 89
d 0.826 2 3 cbr 1000 ------- 2 1.0 5.0 89 89
r 0.827333 2 3 cbr 1000 ------- 2 1.0 5.0 54 54
+ 0.827333 3 5 cbr 1000 ------- 2 1.0 5.0 54 54
- 0.827333 3 5 cbr 1000 ------- 2 1.0 5.0 54 54
+ 0.828 1 2 cbr 1000 ------- 2 1.0 5.0 91 91
- 0.828 1 2 cbr 1000 ------- 2 1.0 5.0 91 91
- 0.834 2 3 cbr 1000 ------- 2 1.0 5.0 60 60
r 0.834 1 2 cbr 1000 ------- 2 1.0 5.0 90 90
+ 0.834 2 3 cbr 1000 ------- 2 1.0 5.0 90 90
+ 0.836 1 2 cbr 1000 ------- 2 1.0 5.0 92 92
- 0.836 1 2 cbr 1000 ------- 2 1.0 5.0 92 92
r 0.842 1 2 cbr 1000 ------- 2 1.0 5.0 91 91
+ 0.842 2 3 cbr 1000 ------- 2 1.0 5.0 91 91
d 0.842 2 3 cbr 1000 ------- 2 1.0 5.0 91 91
+ 0.844 1 2 cbr 1000 ------- 2 1.0 5.0 93 93
- 0.844 1 2 cbr 1000 ------- 2 1.0 5.0 93 93
r 0.846667 3 5 cbr 1000 ------- 2 1.0 5.0 50 50
r 0.85 1 2 cbr 1000 ------- 2 1.0 5.0 92 92
+ 0.85 2 3 cbr 1000 ------- 2 1.0 5.0 92 92
d 0.85 2 3 cbr 1000 ------- 2 1.0 5.0 92 92
+ 0.852 1 2 cbr 1000 ------- 2 1.0 5.0 94 94
- 0.852 1 2 cbr 1000 ------- 2 1.0 5.0 94 94
r 0.854 2 3 cbr 1000 ------- 2 1.0 5.0 57 57
+ 0.854 3 5 cbr 1000 ------- 2 1.0 5.0 57 57
- 0.854 3 5 cbr 1000 ------- 2 1.0 5.0 57 57
r 0.858 1 2 cbr 1000 ------- 2 1.0 5.0 93 93
+ 0.858 2 3 cbr 1000 ------- 2 1.0 5.0 93 93
d 0.858 2 3 cbr 1000 ------- 2 1.0 5.0 93 93
+ 0.86 1 2 cbr 1000 ------- 2 1.0 5.0 95 95
- 0.86 1 2 cbr 1000 ------- 2 1.0 5.0 95 95
- 0.860667 2 3 cbr 1000 ------- 2 1.0 5.0 64 64
r 0.866 1 2 cbr 1000 ------- 2 1.0 5.0 94 94
+ 0.866 2 3 cbr 1000 ------- 2 1.0 5.0 94 94
+ 0.868 1 2 cbr 1000 ------- 2 1.0 5.0 96 96
- 0.868 1 2 cbr 1000 ------- 2 1.0 5.0 96 96
r 0.873333 3 5 cbr 1000 ------- 2 1.0 5.0 54 54
r 0.874 1 2 cbr 1000 ------- 2 1.0 5.0 95 95
+ 0.874 2 3 cbr 1000 ------- 2 1.0 5.0 95 95
d 0.874 2 3 cbr 1000 ------- 2 1.0 5.0 95 95
+ 0.876 1 2 cbr 1000 ------- 2 1.0 5.0 97 97
- 0.876 1 2 cbr 1000 ------- 2 1.0 5.0 97 97
r 0.880667 2 3 cbr 1000 ------- 2 1.0 5.0 60 60
+ 0.880667 3 5 cbr 1000 ------- 2 1.0 5.0 60 60
- 0.880667 3 5 cbr 1000 ------- 2 1.0 5.0 60 60
r 0.882 1 2 cbr 1000 ------- 2 1.0 5.0 96 96
+ 0.882 2 3 cbr 1000 ------- 2 1.0 5.0 96 96
d 0.882 2 3 cbr 1000 ------- 2 1.0 5.0 96 96
+ 0.884 1 2 cbr 1000 ------- 2 1.0 5.0 98 98
- 0.884 1 2 cbr 1000 ------- 2 1.0 5.0 98 98
- 0.887333 2 3 cbr 1000 ------- 2 1.0 5.0 67 67
r 0.89 1 2 cbr 1000 ------- 2 1.0 5.0 97 97
+ 0.89 2 3 cbr 1000 ------- 2 1.0 5.0 97 97
+ 0.892 1 2 cbr 1000 ------- 2 1.0 5.0 99 99
- 0.892 1 2 cbr 1000 ------- 2 1.0 5.0 99 99
r 0.898 1 2 cbr 1000 ------- 2 1.0 5.0 98 98
+ 0.898 2 3 cbr 1000 ------- 2 1.0 5.0 98 98
d 0.898 2 3 cbr 1000 ------- 2 1.0 5.0 98 98
r 0.9 3 5 cbr 1000 ------- 2 1.0 5.0 57 57
+ 0.9 1 2 cbr 1000 ------- 2 1.0 5.0 100 100
- 0.9 1 2 cbr 1000 ------- 2 1.0 5.0 100 100
r 0.906 1 2 cbr 1000 ------- 2 1.0 5.0 99 99
+ 0.906 2 3 cbr 1000 ------- 2 1.0 5.0 99 99
d 0.906 2 3 cbr 1000 ------- 2 1.0 5.0 99 99
r 0.907333 2 3 cbr 1000 ------- 2 1.0 5.0 64 64
+ 0.907333 3 5 cbr 1000 ------- 2 1.0 5.0 64 64
- 0.907333 3 5 cbr 1000 ------- 2 1.0 5.0 64 64
+ 0.908 1 2 cbr 1000 ------- 2 1.0 5.0 101 101
- 0.908 1 2 cbr 1000 ------- 2 1.0 5.0 101 101
- 0.914 2 3 cbr 1000 ------- 2 1.0 5.0 70 70
r 0.914 1 2 cbr 1000 ------- 2 1.0 5.0 100 100
+ 0.914 2 3 cbr 1000 ------- 2 1.0 5.0 100 100
+ 0.916 1 2 cbr 1000 ------- 2 1.0 5.0 102 102
- 0.916 1 2 cbr 1000 ------- 2 1.0 5.0 102 102
r 0.922 1 2 cbr 1000 ------- 2 1.0 5.0 101 101
+ 0.922 2 3 cbr 1000 ------- 2 1.0 5.0 101 101
d 0.922 2 3 cbr 1000 ------- 2 1.0 5.0 101 101
+ 0.924 1 2 cbr 1000 ------- 2 1.0 5.0 103 103
- 0.924 1 2 cbr 1000 ------- 2 1.0 5.0 103 103
r 0.926667 3 5 cbr 1000 ------- 2 1.0 5.0 60 60
r 0.93 1 2 cbr 1000 ------- 2 1.0 5.0 102 102
+ 0.93 2 3 cbr 1000 ------- 2 1.0 5.0 102 102
d 0.93 2 3 cbr 1000 ------- 2 1.0 5.0 102 102
+ 0.932 1 2 cbr 1000 ------- 2 1.0 5.0 104 104
- 0.932 1 2 cbr 1000 ------- 2 1.0 5.0 104 104
r 0.934 2 3 cbr 1000 ------- 2 1.0 5.0 67 67
+ 0.934 3 5 cbr 1000 ------- 2 1.0 5.0 67 67
- 0.934 3 5 cbr 1000 ------- 2 1.0 5.0 67 67
r 0.938 1 2 cbr 1000 ------- 2 1.0 5.0 103 103
+ 0.938 2 3 cbr 1000 ------- 2 1.0 5.0 103 103
d 0.938 2 3 cbr 1000 ------- 2 1.0 5.0 103 103
+ 0.94 1 2 cbr 1000 ------- 2 1.0 5.0 105 105
- 0.94 1 2 cbr 1000 ------- 2 1.0 5.0 105 105
- 0.940667 2 3 cbr 1000 ------- 2 1.0 5.0 74 74
r 0.946 1 2 cbr 1000 ------- 2 1.0 5.0 104 104
+ 0.946 2 3 cbr 1000 ------- 2 1.0 5.0 104 104
+ 0.948 1 2 cbr 1000 ------- 2 1.0 5.0 106 106
- 0.948 1 2 cbr 1000 ------- 2 1.0 5.0 106 106
r 0.953333 3 5 cbr 1000 ------- 2 1.0 5.0 64 64
r 0.954 1 2 cbr 1000 ------- 2 1.0 5.0 105 105
+ 0.954 2 3 cbr 1000 ------- 2 1.0 5.0 105 105
d 0.954 2 3 cbr 1000 ------- 2 1.0 5.0 105 105
+ 0.956 1 2 cbr 1000 ------- 2 1.0 5.0 107 107
- 0.956 1 2 cbr 1000 ------- 2 1.0 5.0 107 107
r 0.960667 2 3 cbr 1000 ------- 2 1.0 5.0 70 70
+ 0.960667 3 5 cbr 1000 ------- 2 1.0 5.0 70 70
- 0.960667 3 5 cbr 1000 ------- 2 1.0 5.0 70 70
r 0.962 1 2 cbr 1000 ------- 2 1.0 5.0 106 106
+ 0.962 2 3 cbr 1000 ------- 2 1.0 5.0 106 106
d 0.962 2 3 cbr 1000 ------- 2 1.0 5.0 106 106
+ 0.964 1 2 cbr 1000 ------- 2 1.0 5.0 108 108
- 0.964 1 2 cbr 1000 ------- 2 1.0 5.0 108 108
- 0.967333 2 3 cbr 1000 ------- 2 1.0 5.0 77 77
r 0.97 1 2 cbr 1000 ------- 2 1.0 5.0 107 107
+ 0.97 2 3 cbr 1000 ------- 2 1.0 5.0 107 107
+ 0.972 1 2 cbr 1000 ------- 2 1.0 5.0 109 109
- 0.972 1 2 cbr 1000 ------- 2 1.0 5.0 109 109
r 0.978 1 2 cbr 1000 ------- 2 1.0 5.0 108 108
+ 0.978 2 3 cbr 1000 ------- 2 1.0 5.0 108 108
d 0.978 2 3 cbr 1000 ------- 2 1.0 5.0 108 108
r 0.98 3 5 cbr 1000 ------- 2 1.0 5.0 67 67
+ 0.98 1 2 cbr 1000 ------- 2 1.0 5.0 110 110
- 0.98 1 2 cbr 1000 ------- 2 1.0 5.0 110 110
r 0.986 1 2 cbr 1000 ------- 2 1.0 5.0 109 109